TACC:  Starting up job 5554026 
TACC:  Starting parallel tasks... 

     Program PHONON v.6.2 starts on 18Apr2020 at  4:26:16 

     This program is part of the open-source Quantum ESPRESSO suite
     for quantum simulation of materials; please cite
         "P. Giannozzi et al., J. Phys.:Condens. Matter 21 395502 (2009);
         "P. Giannozzi et al., J. Phys.:Condens. Matter 29 465901 (2017);
          URL http://www.quantum-espresso.org", 
     in publications or presentations arising from this work. More details at
     http://www.quantum-espresso.org/quote

     Parallel version (MPI), running on    64 processors

     MPI processes distributed on     1 nodes
     K-points division:     npool     =       4
     R & G space division:  proc/nbgrp/npool/nimage =      16

     Reading data from directory:
     ./WSe2.save/

     IMPORTANT: XC functional enforced from input :
     Exchange-correlation      = PBE ( 1  4  3  4 0 0)
     Any further DFT definition will be discarded
     Please, verify this is what you really want

 
     Parallelization info
     --------------------
     sticks:   dense  smooth     PW     G-vecs:    dense   smooth      PW
     Min          53      53     15                 6807     6807    1057
     Max          54      54     16                 6826     6826    1080
     Sum         859     859    253               109083   109083   17117
 


     Dynamical matrices for ( 1, 1, 1)  uniform grid of q-points
     (   1q-points):
       N         xq(1)         xq(2)         xq(3) 
       1   0.000000000   0.000000000   0.000000000

     Calculation of q =    0.0000000   0.0000000   0.0000000

     --                                                                         

     bravais-lattice index     =            0
     lattice parameter (alat)  =       6.2752  a.u.
     unit-cell volume          =    1129.5156 (a.u.)^3
     number of atoms/cell      =            3
     number of atomic types    =            2
     kinetic-energy cut-off    =      80.0000  Ry
     charge density cut-off    =     320.0000  Ry
     convergence threshold     =      1.0E-14
     beta                      =       0.7000
     number of iterations used =            4
     Exchange-correlation      = PBE ( 1  4  3  4 0 0)


     celldm(1)=    6.27518  celldm(2)=    0.00000  celldm(3)=    0.00000
     celldm(4)=    0.00000  celldm(5)=    0.00000  celldm(6)=    0.00000

     crystal axes: (cart. coord. in units of alat)
               a(1) = (  1.0000  0.0000  0.0000 )  
               a(2) = ( -0.5000  0.8660  0.0000 )  
               a(3) = (  0.0000  0.0000  5.2782 )  

     reciprocal axes: (cart. coord. in units 2 pi/alat)
               b(1) = (  1.0000  0.5774  0.0000 )  
               b(2) = (  0.0000  1.1547  0.0000 )  
               b(3) = (  0.0000  0.0000  0.1895 )  


     Atoms inside the unit cell: 

     Cartesian axes

     site n.  atom      mass           positions (alat units)
        1     W  183.8400   tau(    1) = (    0.00000    0.00000    0.00000  )
        2     Se  78.9600   tau(    2) = (    0.50000   -0.28867    0.50535  )
        3     Se  78.9600   tau(    3) = (    0.50000   -0.28867   -0.50535  )

     Computing dynamical matrix for 
                    q = (   0.0000000   0.0000000   0.0000000 )
 
     13 Sym.Ops. (with q -> -q+G )


     G cutoff =  319.1856  (   6826 G-vectors)     FFT grid: ( 36, 36,192)
     number of k points=     7

     PseudoPot. # 1 for W  read from file:
     ../pseudos/W.upf
     MD5 check sum: cb94e439a9e4ea809831d6e90c63864e
     Pseudo is Norm-conserving + core correction, Zval = 14.0
     Generated using ONCVPSP code by D. R. Hamann
     Using radial grid of 1396 points,  8 beta functions with: 
                l(1) =   0
                l(2) =   0
                l(3) =   1
                l(4) =   1
                l(5) =   2
                l(6) =   2
                l(7) =   3
                l(8) =   3

     PseudoPot. # 2 for Se read from file:
     ../pseudos/Se.upf
     MD5 check sum: 3cc46b3642295b3f4fdae63b742ce36d
     Pseudo is Norm-conserving + core correction, Zval = 16.0
     Generated using ONCVPSP code by D. R. Hamann
     Using radial grid of 1214 points,  6 beta functions with: 
                l(1) =   0
                l(2) =   0
                l(3) =   1
                l(4) =   1
                l(5) =   2
                l(6) =   2

     Mode symmetry, D_3h (-62m) point group:


     Electric field:
     Dielectric constant
     Born effective charges in two ways 


     Atomic displacements:
     There are   6 irreducible representations

     Representation     1      1 modes -A'_1  To be done

     Representation     2      2 modes -E'  To be done

     Representation     3      2 modes -E'  To be done

     Representation     4      1 modes -A''2  To be done

     Representation     5      1 modes -A''2  To be done

     Representation     6      2 modes -E''  To be done



     Alpha used in Ewald sum =   2.8000
     PHONON       :     5.07s CPU         8.24s WALL


     Electric Fields Calculation

      iter #   1 total cpu time :    24.8 secs   av.it.:   8.7
      thresh= 1.000E-02 alpha_mix =  0.700 |ddv_scf|^2 =  3.946E-04

      iter #   2 total cpu time :    31.2 secs   av.it.:  11.8
      thresh= 1.986E-03 alpha_mix =  0.700 |ddv_scf|^2 =  8.884E-03

      iter #   3 total cpu time :    35.3 secs   av.it.:   5.5
      thresh= 9.425E-03 alpha_mix =  0.700 |ddv_scf|^2 =  5.926E-06

      iter #   4 total cpu time :    41.8 secs   av.it.:  12.5
      thresh= 2.434E-04 alpha_mix =  0.700 |ddv_scf|^2 =  5.550E-07

      iter #   5 total cpu time :    48.2 secs   av.it.:  11.8
      thresh= 7.450E-05 alpha_mix =  0.700 |ddv_scf|^2 =  1.338E-09

      iter #   6 total cpu time :    55.4 secs   av.it.:  14.8
      thresh= 3.657E-06 alpha_mix =  0.700 |ddv_scf|^2 =  7.232E-11

      iter #   7 total cpu time :    63.2 secs   av.it.:  15.3
      thresh= 8.504E-07 alpha_mix =  0.700 |ddv_scf|^2 =  2.600E-12

      iter #   8 total cpu time :    70.7 secs   av.it.:  15.7
      thresh= 1.613E-07 alpha_mix =  0.700 |ddv_scf|^2 =  2.518E-13

      iter #   9 total cpu time :    78.0 secs   av.it.:  15.2
      thresh= 5.018E-08 alpha_mix =  0.700 |ddv_scf|^2 =  2.033E-14

      iter #  10 total cpu time :    85.0 secs   av.it.:  14.3
      thresh= 1.426E-08 alpha_mix =  0.700 |ddv_scf|^2 =  3.303E-16

     End of electric fields calculation

          Dielectric constant in cartesian axis 

          (       6.650963563      -0.000000020       0.000000000 )
          (      -0.000000020       6.650963551       0.000000000 )
          (       0.000000000      -0.000000000       1.467154293 )

          Effective charges (d Force / dE) in cartesian axis

           atom      1   W  
      Ex  (       -1.25572        0.00000        0.00000 )
      Ey  (        0.00000       -1.25572        0.00000 )
      Ez  (        0.00000       -0.00000       -0.12173 )
           atom      2   Se 
      Ex  (        0.59290        0.00000        0.00000 )
      Ey  (        0.00000        0.59290        0.00000 )
      Ez  (        0.00000        0.00000        0.05816 )
           atom      3   Se 
      Ex  (        0.59290        0.00000        0.00000 )
      Ey  (        0.00000        0.59290        0.00000 )
      Ez  (        0.00000        0.00000        0.05816 )


     Representation #  1 mode #   1

     Self-consistent Calculation

      iter #   1 total cpu time :    89.5 secs   av.it.:  11.0
      thresh= 1.000E-02 alpha_mix =  0.700 |ddv_scf|^2 =  2.632E-04

      iter #   2 total cpu time :    92.8 secs   av.it.:  14.9
      thresh= 1.622E-03 alpha_mix =  0.700 |ddv_scf|^2 =  2.743E-03

      iter #   3 total cpu time :    95.7 secs   av.it.:  12.7
      thresh= 5.237E-03 alpha_mix =  0.700 |ddv_scf|^2 =  1.449E-05

      iter #   4 total cpu time :    98.8 secs   av.it.:  14.0
      thresh= 3.807E-04 alpha_mix =  0.700 |ddv_scf|^2 =  1.283E-06

      iter #   5 total cpu time :   101.9 secs   av.it.:  13.1
      thresh= 1.133E-04 alpha_mix =  0.700 |ddv_scf|^2 =  2.616E-09

      iter #   6 total cpu time :   105.0 secs   av.it.:  14.4
      thresh= 5.115E-06 alpha_mix =  0.700 |ddv_scf|^2 =  2.325E-11

      iter #   7 total cpu time :   108.3 secs   av.it.:  15.3
      thresh= 4.822E-07 alpha_mix =  0.700 |ddv_scf|^2 =  6.604E-12

      iter #   8 total cpu time :   111.3 secs   av.it.:  13.0
      thresh= 2.570E-07 alpha_mix =  0.700 |ddv_scf|^2 =  1.344E-13

      iter #   9 total cpu time :   114.5 secs   av.it.:  14.4
      thresh= 3.666E-08 alpha_mix =  0.700 |ddv_scf|^2 =  5.979E-15

     End of self-consistent calculation

     Convergence has been achieved 


     Representation #  2 modes #   2  3

     Self-consistent Calculation

      iter #   1 total cpu time :   119.1 secs   av.it.:  10.6
      thresh= 1.000E-02 alpha_mix =  0.700 |ddv_scf|^2 =  7.923E-07

      iter #   2 total cpu time :   125.1 secs   av.it.:  18.2
      thresh= 8.901E-05 alpha_mix =  0.700 |ddv_scf|^2 =  1.531E-07

      iter #   3 total cpu time :   131.0 secs   av.it.:  18.3
      thresh= 3.913E-05 alpha_mix =  0.700 |ddv_scf|^2 =  1.941E-10

      iter #   4 total cpu time :   136.8 secs   av.it.:  17.8
      thresh= 1.393E-06 alpha_mix =  0.700 |ddv_scf|^2 =  1.891E-11

      iter #   5 total cpu time :   143.0 secs   av.it.:  17.6
      thresh= 4.349E-07 alpha_mix =  0.700 |ddv_scf|^2 =  7.317E-13

      iter #   6 total cpu time :   148.8 secs   av.it.:  17.7
      thresh= 8.554E-08 alpha_mix =  0.700 |ddv_scf|^2 =  1.676E-14

      iter #   7 total cpu time :   154.7 secs   av.it.:  18.2
      thresh= 1.295E-08 alpha_mix =  0.700 |ddv_scf|^2 =  6.818E-16

     End of self-consistent calculation

     Convergence has been achieved 


     Representation #  3 modes #   4  5

     Self-consistent Calculation

      iter #   1 total cpu time :   159.0 secs   av.it.:   8.6
      thresh= 1.000E-02 alpha_mix =  0.700 |ddv_scf|^2 =  1.973E-07

      iter #   2 total cpu time :   164.6 secs   av.it.:  17.0
      thresh= 4.441E-05 alpha_mix =  0.700 |ddv_scf|^2 =  1.635E-08

      iter #   3 total cpu time :   170.6 secs   av.it.:  17.6
      thresh= 1.279E-05 alpha_mix =  0.700 |ddv_scf|^2 =  9.641E-11

      iter #   4 total cpu time :   176.8 secs   av.it.:  18.6
      thresh= 9.819E-07 alpha_mix =  0.700 |ddv_scf|^2 =  6.465E-12

      iter #   5 total cpu time :   182.8 secs   av.it.:  18.6
      thresh= 2.543E-07 alpha_mix =  0.700 |ddv_scf|^2 =  7.747E-14

      iter #   6 total cpu time :   188.7 secs   av.it.:  17.9
      thresh= 2.783E-08 alpha_mix =  0.700 |ddv_scf|^2 =  6.928E-16

     End of self-consistent calculation

     Convergence has been achieved 


     Representation #  4 mode #   6

     Self-consistent Calculation

      iter #   1 total cpu time :   191.6 secs   av.it.:   8.9
      thresh= 1.000E-02 alpha_mix =  0.700 |ddv_scf|^2 =  5.389E-04

      iter #   2 total cpu time :   194.7 secs   av.it.:  13.0
      thresh= 2.321E-03 alpha_mix =  0.700 |ddv_scf|^2 =  1.368E-02

      iter #   3 total cpu time :   197.5 secs   av.it.:  11.0
      thresh= 1.000E-02 alpha_mix =  0.700 |ddv_scf|^2 =  5.023E-06

      iter #   4 total cpu time :   200.6 secs   av.it.:  14.0
      thresh= 2.241E-04 alpha_mix =  0.700 |ddv_scf|^2 =  1.226E-06

      iter #   5 total cpu time :   203.5 secs   av.it.:  13.0
      thresh= 1.107E-04 alpha_mix =  0.700 |ddv_scf|^2 =  3.929E-09

      iter #   6 total cpu time :   206.6 secs   av.it.:  14.0
      thresh= 6.268E-06 alpha_mix =  0.700 |ddv_scf|^2 =  7.110E-12

      iter #   7 total cpu time :   209.9 secs   av.it.:  15.0
      thresh= 2.666E-07 alpha_mix =  0.700 |ddv_scf|^2 =  2.724E-12

      iter #   8 total cpu time :   212.8 secs   av.it.:  13.0
      thresh= 1.650E-07 alpha_mix =  0.700 |ddv_scf|^2 =  1.986E-14

      iter #   9 total cpu time :   216.0 secs   av.it.:  15.0
      thresh= 1.409E-08 alpha_mix =  0.700 |ddv_scf|^2 =  3.704E-16

     End of self-consistent calculation

     Convergence has been achieved 


     Representation #  5 mode #   7

     Self-consistent Calculation

      iter #   1 total cpu time :   219.2 secs   av.it.:  10.1
      thresh= 1.000E-02 alpha_mix =  0.700 |ddv_scf|^2 =  4.740E-04

      iter #   2 total cpu time :   222.2 secs   av.it.:  14.0
      thresh= 2.177E-03 alpha_mix =  0.700 |ddv_scf|^2 =  9.469E-03

      iter #   3 total cpu time :   225.0 secs   av.it.:  11.0
      thresh= 9.731E-03 alpha_mix =  0.700 |ddv_scf|^2 =  3.793E-05

      iter #   4 total cpu time :   228.1 secs   av.it.:  13.7
      thresh= 6.159E-04 alpha_mix =  0.700 |ddv_scf|^2 =  1.769E-06

      iter #   5 total cpu time :   231.0 secs   av.it.:  12.0
      thresh= 1.330E-04 alpha_mix =  0.700 |ddv_scf|^2 =  1.312E-09

      iter #   6 total cpu time :   234.1 secs   av.it.:  14.9
      thresh= 3.622E-06 alpha_mix =  0.700 |ddv_scf|^2 =  4.742E-10

      iter #   7 total cpu time :   237.1 secs   av.it.:  13.0
      thresh= 2.178E-06 alpha_mix =  0.700 |ddv_scf|^2 =  2.223E-12

      iter #   8 total cpu time :   240.3 secs   av.it.:  14.1
      thresh= 1.491E-07 alpha_mix =  0.700 |ddv_scf|^2 =  5.892E-12

      iter #   9 total cpu time :   243.3 secs   av.it.:  12.9
      thresh= 2.427E-07 alpha_mix =  0.700 |ddv_scf|^2 =  6.705E-13

      iter #  10 total cpu time :   246.3 secs   av.it.:  13.9
      thresh= 8.189E-08 alpha_mix =  0.700 |ddv_scf|^2 =  3.296E-14

      iter #  11 total cpu time :   249.5 secs   av.it.:  15.0
      thresh= 1.816E-08 alpha_mix =  0.700 |ddv_scf|^2 =  1.783E-16

     End of self-consistent calculation

     Convergence has been achieved 


     Representation #  6 modes #   8  9

     Self-consistent Calculation

      iter #   1 total cpu time :   254.2 secs   av.it.:  10.6
      thresh= 1.000E-02 alpha_mix =  0.700 |ddv_scf|^2 =  7.516E-07

      iter #   2 total cpu time :   260.5 secs   av.it.:  17.9
      thresh= 8.669E-05 alpha_mix =  0.700 |ddv_scf|^2 =  1.308E-07

      iter #   3 total cpu time :   266.4 secs   av.it.:  17.9
      thresh= 3.617E-05 alpha_mix =  0.700 |ddv_scf|^2 =  1.587E-10

      iter #   4 total cpu time :   272.2 secs   av.it.:  17.9
      thresh= 1.260E-06 alpha_mix =  0.700 |ddv_scf|^2 =  5.324E-12

      iter #   5 total cpu time :   277.9 secs   av.it.:  17.5
      thresh= 2.307E-07 alpha_mix =  0.700 |ddv_scf|^2 =  6.167E-14

      iter #   6 total cpu time :   283.7 secs   av.it.:  17.6
      thresh= 2.483E-08 alpha_mix =  0.700 |ddv_scf|^2 =  2.121E-15

     End of self-consistent calculation

     Convergence has been achieved 
 
     Number of q in the star =    1
     List of q in the star:
          1   0.000000000   0.000000000   0.000000000

          Dielectric constant in cartesian axis 

          (       6.650963563      -0.000000020       0.000000000 )
          (      -0.000000020       6.650963551       0.000000000 )
          (       0.000000000      -0.000000000       1.467154293 )

          Effective charges (d Force / dE) in cartesian axis

           atom      1   W  
      Ex  (       -1.25572        0.00000        0.00000 )
      Ey  (        0.00000       -1.25572        0.00000 )
      Ez  (        0.00000       -0.00000       -0.12173 )
           atom      2   Se 
      Ex  (        0.59290        0.00000        0.00000 )
      Ey  (        0.00000        0.59290        0.00000 )
      Ez  (        0.00000        0.00000        0.05816 )
           atom      3   Se 
      Ex  (        0.59290        0.00000        0.00000 )
      Ey  (        0.00000        0.59290        0.00000 )
      Ez  (        0.00000        0.00000        0.05816 )

          Effective charges (d P / du) in cartesian axis 

           atom      1   W  
      Px  (       -1.25514        0.00000        0.00000 )
      Py  (        0.00000       -1.25514       -0.00000 )
      Pz  (        0.00000        0.00000       -0.12171 )
           atom      2   Se 
      Px  (        0.59231        0.00000        0.00000 )
      Py  (        0.00000        0.59231       -0.00000 )
      Pz  (        0.00000        0.00000        0.05832 )
           atom      3   Se 
      Px  (        0.59231        0.00000        0.00000 )
      Py  (        0.00000        0.59231       -0.00000 )
      Pz  (        0.00000       -0.00000        0.05832 )

     Diagonalizing the dynamical matrix

     q = (    0.000000000   0.000000000   0.000000000 ) 

 **************************************************************************
     freq (    1) =      -0.206324 [THz] =      -6.882234 [cm-1]
     freq (    2) =       0.216418 [THz] =       7.218926 [cm-1]
     freq (    3) =       0.216418 [THz] =       7.218926 [cm-1]
     freq (    4) =       5.019863 [THz] =     167.444620 [cm-1]
     freq (    5) =       5.019863 [THz] =     167.444620 [cm-1]
     freq (    6) =       7.154657 [THz] =     238.653662 [cm-1]
     freq (    7) =       7.154657 [THz] =     238.653663 [cm-1]
     freq (    8) =       7.241824 [THz] =     241.561251 [cm-1]
     freq (    9) =       8.947998 [THz] =     298.473081 [cm-1]
 **************************************************************************

     Mode symmetry, D_3h (-62m) point group:

     freq (  1 -  1) =         -6.9  [cm-1]   --> A''2            I  
     freq (  2 -  3) =          7.2  [cm-1]   --> E'              I+R
     freq (  4 -  5) =        167.4  [cm-1]   --> E''             R  
     freq (  6 -  7) =        238.7  [cm-1]   --> E'              I+R
     freq (  8 -  8) =        241.6  [cm-1]   --> A'_1            R  
     freq (  9 -  9) =        298.5  [cm-1]   --> A''2            I  
 
     PHONON       :  4m11.86s CPU     4m44.94s WALL

     INITIALIZATION: 
     phq_setup    :      0.12s CPU      0.16s WALL (       1 calls)
     phq_init     :      2.08s CPU      2.12s WALL (       1 calls)
 
     phq_init     :      2.08s CPU      2.12s WALL (       1 calls)
     set_drhoc    :      1.48s CPU      1.48s WALL (       3 calls)
     init_vloc    :      0.22s CPU      0.25s WALL (       1 calls)
     init_us_1    :      0.02s CPU      0.02s WALL (       1 calls)
 
     DIELECTRIC CONSTANT AND EFFECTIVE CHARGES:
     solve_e      :     69.27s CPU     76.99s WALL (       1 calls)
     dielec       :      0.02s CPU      0.07s WALL (       1 calls)
     zstar_eu     :      1.37s CPU      1.55s WALL (       1 calls)
 
     DYNAMICAL MATRIX:
     dynmat0      :      1.12s CPU      1.16s WALL (       1 calls)
     phqscf       :    176.00s CPU    197.31s WALL (       1 calls)
     dynmatrix    :      0.02s CPU      0.12s WALL (       1 calls)
 
     phqscf       :    176.00s CPU    197.31s WALL (       1 calls)
     solve_linter :    175.64s CPU    195.89s WALL (       6 calls)
     drhodv       :      0.24s CPU      0.29s WALL (       6 calls)
     add_zstar_ue :      0.05s CPU      0.07s WALL (       6 calls)
 
     dynmat0      :      1.12s CPU      1.16s WALL (       1 calls)
     dynmat_us    :      0.08s CPU      0.08s WALL (       1 calls)
     d2ionq       :      0.01s CPU      0.01s WALL (       1 calls)
     dynmatcc     :      1.02s CPU      1.03s WALL (       1 calls)
 
     dynmat_us    :      0.08s CPU      0.08s WALL (       1 calls)
 
     phqscf       :    176.00s CPU    197.31s WALL (       1 calls)
     solve_linter :    175.64s CPU    195.89s WALL (       6 calls)
 
     solve_linter :    175.64s CPU    195.89s WALL (       6 calls)
     dvqpsi_us    :      2.35s CPU      2.52s WALL (      36 calls)
     ortho        :      0.26s CPU      0.29s WALL (     200 calls)
     cgsolve      :    154.18s CPU    166.41s WALL (     200 calls)
     incdrhoscf   :      8.96s CPU      9.71s WALL (     194 calls)
     vpsifft      :      5.28s CPU      5.71s WALL (     116 calls)
     dv_of_drho   :      2.14s CPU      2.30s WALL (      97 calls)
     mix_pot      :      0.26s CPU      2.45s WALL (      58 calls)
     psymdvscf    :     52.52s CPU     52.65s WALL (      48 calls)
 
     dvqpsi_us    :      2.35s CPU      2.52s WALL (      36 calls)
     dvqpsi_us_on :      0.32s CPU      0.33s WALL (      36 calls)
 
     cgsolve      :    154.18s CPU    166.41s WALL (     200 calls)
     ch_psi       :    151.00s CPU    162.89s WALL (    4766 calls)
 
     ch_psi       :    151.00s CPU    162.89s WALL (    4766 calls)
     h_psi        :    140.76s CPU    152.18s WALL (    4766 calls)
     last         :      9.15s CPU      9.64s WALL (    4766 calls)
 
     h_psi        :    140.76s CPU    152.18s WALL (    4766 calls)
     add_vuspsi   :      5.29s CPU      5.51s WALL (    4766 calls)
 
     incdrhoscf   :      8.96s CPU      9.71s WALL (     194 calls)
 
 
      General routines
     calbec       :      7.34s CPU      7.83s WALL (    9630 calls)
     fft          :      2.32s CPU      3.36s WALL (    1500 calls)
     ffts         :      0.12s CPU      0.13s WALL (      90 calls)
     fftw         :    133.93s CPU    145.70s WALL (  158238 calls)
     davcio       :      0.16s CPU      0.85s WALL (    1338 calls)
     write_rec    :      0.39s CPU     10.59s WALL (      64 calls)
 
 
     PHONON       :  4m11.86s CPU     4m44.95s WALL

 
   This run was terminated on:   4:31: 1  18Apr2020            

=------------------------------------------------------------------------------=
   JOB DONE.
=------------------------------------------------------------------------------=
TACC:  Shutdown complete. Exiting. 
