TACC:  Starting up job 5554026 
TACC:  Starting parallel tasks... 

     Program PWSCF v.6.2 starts on 18Apr2020 at  4:26: 0 

     This program is part of the open-source Quantum ESPRESSO suite
     for quantum simulation of materials; please cite
         "P. Giannozzi et al., J. Phys.:Condens. Matter 21 395502 (2009);
         "P. Giannozzi et al., J. Phys.:Condens. Matter 29 465901 (2017);
          URL http://www.quantum-espresso.org", 
     in publications or presentations arising from this work. More details at
     http://www.quantum-espresso.org/quote

     Parallel version (MPI), running on    64 processors

     MPI processes distributed on     1 nodes
     K-points division:     npool     =       4
     R & G space division:  proc/nbgrp/npool/nimage =      16
     Reading input from scf.in

     Current dimensions of program PWSCF are:
     Max number of different atomic species (ntypx) = 10
     Max number of k-points (npk) =  40000
     Max angular momentum in pseudopotentials (lmaxx) =  3

     Subspace diagonalization in iterative solution of the eigenvalue problem:
     a serial algorithm will be used

 
     Parallelization info
     --------------------
     sticks:   dense  smooth     PW     G-vecs:    dense   smooth      PW
     Min          53      53     15                 6807     6807    1057
     Max          54      54     16                 6826     6826    1080
     Sum         859     859    253               109083   109083   17117
 


     bravais-lattice index     =            0
     lattice parameter (alat)  =       6.2752  a.u.
     unit-cell volume          =    1129.5156 (a.u.)^3
     number of atoms/cell      =            3
     number of atomic types    =            2
     number of electrons       =        46.00
     number of Kohn-Sham states=           23
     kinetic-energy cutoff     =      80.0000  Ry
     charge density cutoff     =     320.0000  Ry
     convergence threshold     =      1.0E-10
     mixing beta               =       0.7000
     number of iterations used =            8  plain     mixing
     Exchange-correlation      = PBE ( 1  4  3  4 0 0)

     celldm(1)=   6.275185  celldm(2)=   0.000000  celldm(3)=   0.000000
     celldm(4)=   0.000000  celldm(5)=   0.000000  celldm(6)=   0.000000

     crystal axes: (cart. coord. in units of alat)
               a(1) = (   1.000000   0.000000   0.000000 )  
               a(2) = (  -0.500000   0.866025   0.000000 )  
               a(3) = (   0.000000   0.000000   5.278154 )  

     reciprocal axes: (cart. coord. in units 2 pi/alat)
               b(1) = (  1.000000  0.577350  0.000000 )  
               b(2) = (  0.000000  1.154701  0.000000 )  
               b(3) = (  0.000000  0.000000  0.189460 )  


     PseudoPot. # 1 for W  read from file:
     ../pseudos/W.upf
     MD5 check sum: cb94e439a9e4ea809831d6e90c63864e
     Pseudo is Norm-conserving + core correction, Zval = 14.0
     Generated using ONCVPSP code by D. R. Hamann
     Using radial grid of 1396 points,  8 beta functions with: 
                l(1) =   0
                l(2) =   0
                l(3) =   1
                l(4) =   1
                l(5) =   2
                l(6) =   2
                l(7) =   3
                l(8) =   3

     PseudoPot. # 2 for Se read from file:
     ../pseudos/Se.upf
     MD5 check sum: 3cc46b3642295b3f4fdae63b742ce36d
     Pseudo is Norm-conserving + core correction, Zval = 16.0
     Generated using ONCVPSP code by D. R. Hamann
     Using radial grid of 1214 points,  6 beta functions with: 
                l(1) =   0
                l(2) =   0
                l(3) =   1
                l(4) =   1
                l(5) =   2
                l(6) =   2

     atomic species   valence    mass     pseudopotential
        W             14.00   183.84000     W ( 1.00)
        Se            16.00    78.96000     Se( 1.00)

     12 Sym. Ops. (no inversion) found



   Cartesian axes

     site n.     atom                  positions (alat units)
         1           W   tau(   1) = (   0.0000000   0.0000000   0.0000000  )
         2           Se  tau(   2) = (   0.4999995  -0.2886748   0.5053470  )
         3           Se  tau(   3) = (   0.4999995  -0.2886748  -0.5053470  )

     number of k points=     7
                       cart. coord. in units 2pi/alat
        k(    1) = (   0.0000000   0.0000000   0.0000000), wk =   0.0555556
        k(    2) = (   0.0000000   0.1924501   0.0000000), wk =   0.3333333
        k(    3) = (   0.0000000   0.3849002   0.0000000), wk =   0.3333333
        k(    4) = (   0.0000000  -0.5773503   0.0000000), wk =   0.1666667
        k(    5) = (   0.1666667   0.2886751   0.0000000), wk =   0.3333333
        k(    6) = (   0.1666667   0.4811252   0.0000000), wk =   0.6666667
        k(    7) = (   0.3333333   0.5773503   0.0000000), wk =   0.1111111

     Dense  grid:   109083 G-vectors     FFT dimensions: (  36,  36, 192)

     Estimated max dynamical RAM per process >      15.59 MB

     Estimated total dynamical RAM >     997.55 MB

     Initial potential from superposition of free atoms

     starting charge   45.99935, renormalised to   46.00000

     negative rho (up, down):  1.985E-05 0.000E+00
     Starting wfc are   28 randomized atomic wfcs

     total cpu time spent up to now is        5.2 secs

     Self-consistent Calculation

     iteration #  1     ecut=    80.00 Ry     beta= 0.70
     Davidson diagonalization with overlap
     ethr =  1.00E-02,  avg # of iterations =  2.0

     Threshold (ethr) on eigenvalues was too large:
     Diagonalizing with lowered threshold

     Davidson diagonalization with overlap
     ethr =  1.26E-04,  avg # of iterations =  3.3

     negative rho (up, down):  4.013E-06 0.000E+00

     total cpu time spent up to now is        6.4 secs

     total energy              =    -636.75239541 Ry
     Harris-Foulkes estimate   =    -636.79127294 Ry
     estimated scf accuracy    <       0.06938060 Ry

     iteration #  2     ecut=    80.00 Ry     beta= 0.70
     Davidson diagonalization with overlap
     ethr =  1.51E-04,  avg # of iterations =  3.7

     negative rho (up, down):  1.993E-06 0.000E+00

     total cpu time spent up to now is        7.0 secs

     total energy              =    -636.74373601 Ry
     Harris-Foulkes estimate   =    -636.78657230 Ry
     estimated scf accuracy    <       0.08521798 Ry

     iteration #  3     ecut=    80.00 Ry     beta= 0.70
     Davidson diagonalization with overlap
     ethr =  1.51E-04,  avg # of iterations =  5.0

     negative rho (up, down):  7.353E-07 0.000E+00

     total cpu time spent up to now is        7.5 secs

     total energy              =    -636.75881970 Ry
     Harris-Foulkes estimate   =    -636.78390435 Ry
     estimated scf accuracy    <       0.08730442 Ry

     iteration #  4     ecut=    80.00 Ry     beta= 0.70
     Davidson diagonalization with overlap
     ethr =  1.51E-04,  avg # of iterations =  3.4

     negative rho (up, down):  2.512E-08 0.000E+00

     total cpu time spent up to now is        8.0 secs

     total energy              =    -636.77124896 Ry
     Harris-Foulkes estimate   =    -636.77157007 Ry
     estimated scf accuracy    <       0.00100819 Ry

     iteration #  5     ecut=    80.00 Ry     beta= 0.70
     Davidson diagonalization with overlap
     ethr =  2.19E-06,  avg # of iterations =  4.0

     total cpu time spent up to now is        8.5 secs

     total energy              =    -636.77152386 Ry
     Harris-Foulkes estimate   =    -636.77155862 Ry
     estimated scf accuracy    <       0.00011083 Ry

     iteration #  6     ecut=    80.00 Ry     beta= 0.70
     Davidson diagonalization with overlap
     ethr =  2.41E-07,  avg # of iterations =  4.0

     total cpu time spent up to now is        9.0 secs

     total energy              =    -636.77155001 Ry
     Harris-Foulkes estimate   =    -636.77155041 Ry
     estimated scf accuracy    <       0.00000131 Ry

     iteration #  7     ecut=    80.00 Ry     beta= 0.70
     Davidson diagonalization with overlap
     ethr =  2.85E-09,  avg # of iterations =  4.7

     total cpu time spent up to now is        9.6 secs

     total energy              =    -636.77155061 Ry
     Harris-Foulkes estimate   =    -636.77155078 Ry
     estimated scf accuracy    <       0.00000045 Ry

     iteration #  8     ecut=    80.00 Ry     beta= 0.70
     Davidson diagonalization with overlap
     ethr =  9.84E-10,  avg # of iterations =  3.3

     total cpu time spent up to now is       10.1 secs

     total energy              =    -636.77155070 Ry
     Harris-Foulkes estimate   =    -636.77155071 Ry
     estimated scf accuracy    <       0.00000003 Ry

     iteration #  9     ecut=    80.00 Ry     beta= 0.70
     Davidson diagonalization with overlap
     ethr =  5.91E-11,  avg # of iterations =  3.7

     total cpu time spent up to now is       10.6 secs

     total energy              =    -636.77155070 Ry
     Harris-Foulkes estimate   =    -636.77155070 Ry
     estimated scf accuracy    <          2.3E-09 Ry

     iteration # 10     ecut=    80.00 Ry     beta= 0.70
     Davidson diagonalization with overlap
     ethr =  5.06E-12,  avg # of iterations =  4.3

     total cpu time spent up to now is       11.2 secs

     total energy              =    -636.77155070 Ry
     Harris-Foulkes estimate   =    -636.77155070 Ry
     estimated scf accuracy    <          4.5E-10 Ry

     iteration # 11     ecut=    80.00 Ry     beta= 0.70
     Davidson diagonalization with overlap
     ethr =  9.88E-13,  avg # of iterations =  3.4

     total cpu time spent up to now is       11.6 secs

     End of self-consistent calculation

          k = 0.0000 0.0000 0.0000 ( 13589 PWs)   bands (ev):

   -72.6025 -46.1092 -46.1092 -46.1087 -46.1087 -46.0685 -46.0685 -46.0674
   -46.0674 -46.0532 -46.0511 -36.8215 -36.7085 -36.7084 -13.2018 -11.9657
    -4.6116  -0.8370  -0.8370  -0.6450   0.2643   0.2644   1.1809

          k = 0.0000 0.1925 0.0000 ( 13627 PWs)   bands (ev):

   -72.6003 -46.1090 -46.1088 -46.1082 -46.1077 -46.0687 -46.0686 -46.0680
   -46.0675 -46.0527 -46.0506 -36.8108 -36.7612 -36.7208 -12.8137 -11.7715
    -4.1186  -1.8950  -1.4077  -0.4702  -0.3099   0.1804   0.9666

          k = 0.0000 0.3849 0.0000 ( 13622 PWs)   bands (ev):

   -72.5960 -46.1092 -46.1086 -46.1061 -46.1058 -46.0691 -46.0690 -46.0689
   -46.0677 -46.0519 -46.0496 -36.8652 -36.7893 -36.7453 -11.8876 -11.3196
    -3.8963  -2.8857  -2.7853  -1.1362  -0.4264   0.2510   0.3013

          k = 0.0000-0.5774 0.0000 ( 13664 PWs)   bands (ev):

   -72.5938 -46.1094 -46.1085 -46.1051 -46.1048 -46.0697 -46.0692 -46.0691
   -46.0678 -46.0514 -46.0491 -36.9164 -36.7786 -36.7575 -11.2947 -11.0485
    -4.7600  -3.5269  -2.6297  -1.4652  -0.6149   0.5227   0.5494

          k = 0.1667 0.2887 0.0000 ( 13635 PWs)   bands (ev):

   -72.5971 -46.1088 -46.1085 -46.1069 -46.1066 -46.0692 -46.0688 -46.0686
   -46.0677 -46.0521 -46.0499 -36.8296 -36.7947 -36.7491 -12.1479 -11.4414
    -3.4026  -2.9909  -2.1474  -1.6273  -0.5028   0.1856   0.7102

          k = 0.1667 0.4811 0.0000 ( 13686 PWs)   bands (ev):

   -72.5938 -46.1086 -46.1079 -46.1057 -46.1056 -46.0698 -46.0695 -46.0686
   -46.0680 -46.0514 -46.0492 -36.8904 -36.7841 -36.7786 -11.3219 -11.0440
    -4.2037  -3.4086  -2.5470  -1.7715  -1.1570  -0.4676   0.9816

          k = 0.3333 0.5774 0.0000 ( 13713 PWs)   bands (ev):

   -72.5927 -46.1075 -46.1065 -46.1064 -46.1063 -46.0702 -46.0694 -46.0684
   -46.0684 -46.0513 -46.0489 -36.8652 -36.8416 -36.7732 -11.0163 -10.8853
    -3.7911  -3.6984  -2.8032  -2.2085  -1.7558  -0.8161   1.5002

     highest occupied level (ev):     1.5002

!    total energy              =    -636.77155070 Ry
     Harris-Foulkes estimate   =    -636.77155070 Ry
     estimated scf accuracy    <          2.9E-12 Ry

     The total energy is the sum of the following terms:

     one-electron contribution =   -2424.20394680 Ry
     hartree contribution      =    1207.73458730 Ry
     xc contribution           =    -130.02301756 Ry
     ewald contribution        =     709.72082636 Ry

     convergence has been achieved in  11 iterations

     Writing output data file WSe2.save
 
     init_run     :      1.32s CPU      2.57s WALL (       1 calls)
     electrons    :      5.77s CPU      6.51s WALL (       1 calls)

     Called by init_run:
     wfcinit      :      0.15s CPU      0.24s WALL (       1 calls)
     potinit      :      0.37s CPU      0.42s WALL (       1 calls)

     Called by electrons:
     c_bands      :      4.62s CPU      5.02s WALL (      12 calls)
     sum_band     :      0.68s CPU      0.76s WALL (      12 calls)
     v_of_rho     :      0.40s CPU      0.46s WALL (      12 calls)
     mix_rho      :      0.07s CPU      0.11s WALL (      12 calls)

     Called by c_bands:
     init_us_2    :      0.12s CPU      0.13s WALL (      50 calls)
     cegterg      :      3.81s CPU      4.15s WALL (      24 calls)

     Called by sum_band:

     Called by *egterg:
     h_psi        :      3.16s CPU      3.46s WALL (     114 calls)
     g_psi        :      0.02s CPU      0.03s WALL (      88 calls)
     cdiaghg      :      0.43s CPU      0.47s WALL (     110 calls)

     Called by h_psi:
     h_psi:pot    :      3.15s CPU      3.44s WALL (     114 calls)
     h_psi:calbec :      0.09s CPU      0.11s WALL (     114 calls)
     vloc_psi     :      2.95s CPU      3.20s WALL (     114 calls)
     add_vuspsi   :      0.11s CPU      0.12s WALL (     114 calls)

     General routines
     calbec       :      0.08s CPU      0.10s WALL (     114 calls)
     fft          :      0.28s CPU      1.26s WALL (     134 calls)
     fftw         :      3.15s CPU      3.43s WALL (    3662 calls)
 
     Parallel routines
     fft_scatt_xy :      0.34s CPU      0.36s WALL (    3796 calls)
     fft_scatt_yz :      1.01s CPU      1.10s WALL (    3796 calls)
 
     PWSCF        :     8.95s CPU        12.58s WALL

 
   This run was terminated on:   4:26:13  18Apr2020            

=------------------------------------------------------------------------------=
   JOB DONE.
=------------------------------------------------------------------------------=
TACC:  Shutdown complete. Exiting. 
